3
Lattice="7.94875485 -4.997e-05 4.90143315 -3.97456407 6.88389431 4.90125479 -3.97443877 -6.88377714 4.90124571" Properties=species:S:1:pos:R:3:forces:R:3 energy=-22.93053522 stress="0.0019800459505 7.08759874072e-05 -9.53799212996e-05 7.08759874072e-05 0.00196886440549 -0.000149117941741 -9.53799212996e-05 -0.000149117941741 0.00153927657412" free_energy=-22.93053522 pbc="T T T"
C       -2.41034410      -1.88406913       4.85643933      -1.99131661      -2.30063070      -2.01136785
O       -1.92863108      -1.28754994       5.72498079       0.94331442       1.10483945       1.05836171
O       -2.97407736      -2.56085182       4.04312509       1.04825680       1.19546545       0.95450116
3
Lattice="7.94875485 -4.997e-05 4.90143315 -3.97456407 6.88389431 4.90125479 -3.97443877 -6.88377714 4.90124571" Properties=species:S:1:pos:R:3:forces:R:3 energy=-22.98472469 stress="0.00182981863668 3.77947095307e-05 -0.000140241198806 3.77947095307e-05 0.00188414895762 7.61295467781e-05 -0.000140241198806 7.61295467781e-05 0.00168648011394" free_energy=-22.98472469 pbc="T T T"
C       -2.45487902      -1.90658466       4.88535314       0.52835764      -0.25553341       0.26111521
O       -1.82288976      -2.22994561       5.82829589      -0.28541698       0.13799465      -0.15127455
O       -3.04638701      -1.60155398       3.91810476      -0.24293390       0.11652581      -0.10977877
3
Lattice="7.94875485 -4.997e-05 4.90143315 -3.97456407 6.88389431 4.90125479 -3.97443877 -6.88377714 4.90124571" Properties=species:S:1:pos:R:3:forces:R:3 energy=-22.97452026 stress="0.00190924398739 6.45754023975e-06 2.05808770219e-06 6.45754023975e-06 0.00259968039474 0.000463751986113 2.05808770219e-06 0.000463751986113 0.00224423934498" free_energy=-22.97452026 pbc="T T T"
C       -2.44292499      -1.89960132       4.87142581       0.02050175      -1.66794413      -0.93491629
O       -2.41857631      -0.96182957       5.57234401      -0.01206350       0.43458488       0.19334477
O       -2.45967423      -2.87491241       4.18451168      -0.00894752       1.23322828       0.74245494
3
Lattice="7.94875485 -4.997e-05 4.90143315 -3.97456407 6.88389431 4.90125479 -3.97443877 -6.88377714 4.90124571" Properties=species:S:1:pos:R:3:forces:R:3 energy=-22.97799909 stress="0.00155380337453 -0.000352959157348 -0.000274052107801 -0.000352959157348 0.00151610215033 -0.000291982584146 -0.000274052107801 -0.000291982584146 0.00169383570748" free_energy=-22.97799909 pbc="T T T"
C       -2.45058759      -1.92113948       4.88347290       1.39892096       1.37711100       0.75762048
O       -1.70130949      -1.16184520       5.40401327      -0.59380489      -0.57244626      -0.28042044
O       -3.17118879      -2.65872840       4.34379887      -0.80519637      -0.80410046      -0.47701222
3
Lattice="7.94875485 -4.997e-05 4.90143315 -3.97456407 6.88389431 4.90125479 -3.97443877 -6.88377714 4.90124571" Properties=species:S:1:pos:R:3:forces:R:3 energy=-22.9818893 stress="0.00190412142481 -4.83089997664e-05 -1.44211940806e-05 -4.83089997664e-05 0.00123118916753 -0.000243062684191 -1.44211940806e-05 -0.000243062684191 0.00184329304376" free_energy=-22.9818893 pbc="T T T"
C       -2.44109751      -1.92160520       4.88087830       0.11713223       1.60154264       0.39612178
O       -2.36288135      -0.79399957       5.23678204      -0.05413943      -0.68912304      -0.15866718
O       -2.51674103      -3.02622440       4.51297786      -0.06186899      -0.91287222      -0.23829232
3
Lattice="7.94875485 -4.997e-05 4.90143315 -3.97456407 6.88389431 4.90125479 -3.97443877 -6.88377714 4.90124571" Properties=species:S:1:pos:R:3:forces:R:3 energy=-22.95173475 stress="0.00182269950896 0.000415428705774 0.000238181443323 0.000415428705774 -0.000202879380326 -0.00127820807857 0.000238181443323 -0.00127820807857 0.00123653825944" free_energy=-22.95173475 pbc="T T T"
C       -2.44116628      -1.88722064       4.83518271       0.11881101      -0.94961614       0.38025487
O       -2.63445846      -0.92043542       5.45724308      -0.20218861       1.20851255       0.24408337
O       -2.24511228      -2.92560071       4.32681990       0.08449031      -0.25945841      -0.62485232
3
Lattice="7.94875485 -4.997e-05 4.90143315 -3.97456407 6.88389431 4.90125479 -3.97443877 -6.88377714 4.90124571" Properties=species:S:1:pos:R:3:forces:R:3 energy=-22.93804955 stress="0.00289347941408 -0.00154067062142 -0.00113219796522 -0.00154067062142 0.00435064416713 0.00179580470882 -0.00113219796522 0.00179580470882 0.00325317294756" free_energy=-22.93804955 pbc="T T T"
C       -2.41380378      -1.90718507       4.87542974      -1.19865649       0.97089054       0.81982731
O       -2.97688331      -1.04883412       5.50895996       1.38903999      -1.74157330      -1.32876680
O       -1.92322820      -2.78221488       4.24489011      -0.18945017       0.76885351       0.50753936
3
Lattice="7.94875485 -4.997e-05 4.90143315 -3.97456407 6.88389431 4.90125479 -3.97443877 -6.88377714 4.90124571" Properties=species:S:1:pos:R:3:forces:R:3 energy=-22.96489055 stress="0.00199959918801 0.000223574508172 0.000189373665837 0.000223574508172 0.00244467519944 0.000498864107505 0.000189373665837 0.000498864107505 0.00246668279183" free_energy=-22.96489055 pbc="T T T"
C       -2.42341971      -1.88611374       4.85095952      -0.51545627      -1.03358625      -0.10924135
O       -2.14701337      -1.15146476       5.72856146       0.12027459       0.16027920      -0.30676459
O       -2.74587961      -2.69540225       4.04365804       0.39527670       0.87305569       0.41467298
3
Lattice="7.94875485 -4.997e-05 4.90143315 -3.97456407 6.88389431 4.90125479 -3.97443877 -6.88377714 4.90124571" Properties=species:S:1:pos:R:3:forces:R:3 energy=-22.94794673 stress="0.00226874428375 0.00105840327963 0.000682924801046 0.00105840327963 0.00496212339313 0.00195247975123 0.000682924801046 0.00195247975123 0.00318313854652" free_energy=-22.94794673 pbc="T T T"
C       -2.44654540      -1.90538220       4.85527377       0.46442555       0.81659736       1.03805783
O       -2.10377560      -0.94275157       5.49123014      -0.71804383      -1.80174705      -1.40647209
O       -2.77175724      -2.88965081       4.27775070       0.25330951       0.98500685       0.36874721
3
Lattice="7.94875485 -4.997e-05 4.90143315 -3.97456407 6.88389431 4.90125479 -3.97443877 -6.88377714 4.90124571" Properties=species:S:1:pos:R:3:forces:R:3 energy=-22.86458521 stress="0.00688148615881 0.00178635628734 -0.00230986609838 0.00178635628734 0.00257598086654 -0.000864275337702 -0.00230986609838 -0.000864275337702 0.00312819985945" free_energy=-22.86458521 pbc="T T T"
C       -2.42659516      -1.92836442       4.92885774       1.66606998       0.99795477      -1.94817245
O       -1.39423025      -1.54192553       4.40291276      -2.87970734      -1.24481592       1.93149182
O       -3.49627886      -2.27322443       5.31082945       1.21327825       0.24633703       0.01626973
3
Lattice="7.94875485 -4.997e-05 4.90143315 -3.97456407 6.88389431 4.90125479 -3.97443877 -6.88377714 4.90124571" Properties=species:S:1:pos:R:3:forces:R:3 energy=-22.9739156 stress="0.00283389913512 0.000563437500136 0.000254717135865 0.000563437500136 0.00224271291526 0.000152981005226 0.000254717135865 0.000152981005226 0.00200151506917" free_energy=-22.9739156 pbc="T T T"
C       -2.44279299      -1.92781447       4.88148573       1.49996420       1.09858038       0.33860100
O       -1.44443525      -1.33946989       5.16972770      -1.24736373      -0.84471824      -0.30985055
O       -3.43391443      -2.47609298       4.57957606      -0.25203854      -0.25415808      -0.02764982
3
Lattice="7.94875485 -4.997e-05 4.90143315 -3.97456407 6.88389431 4.90125479 -3.97443877 -6.88377714 4.90124571" Properties=species:S:1:pos:R:3:forces:R:3 energy=-22.94852395 stress="-0.0010717411849 -0.00173890552629 0.00117358092459 -0.00173890552629 0.000867142312504 0.000686163426509 0.00117358092459 0.000686163426509 0.00150691004266" free_energy=-22.94852395 pbc="T T T"
C       -2.45003320      -1.91622657       4.83606724      -0.69103822      -0.45205379       0.97445967
O       -1.49233726      -1.35583641       4.50270878       1.48575688       0.89527112      -0.92910181
O       -3.38057739      -2.46842525       5.28069000      -0.79519277      -0.44326730      -0.04588635
3
Lattice="7.94875485 -4.997e-05 4.90143315 -3.97456407 6.88389431 4.90125479 -3.97443877 -6.88377714 4.90124571" Properties=species:S:1:pos:R:3:forces:R:3 energy=-22.90933798 stress="-9.1259832469e-05 7.5264972934e-05 0.000186222639955 7.5264972934e-05 0.00202230958056 -7.20177029811e-05 0.000186222639955 -7.20177029811e-05 0.00195376477809" free_energy=-22.90933798 pbc="T T T"
C       -2.43707482      -1.85806765       4.84782802      -3.32560877      -1.31488343       1.03608462
O       -1.29510115      -1.79702553       4.69255303       2.22425317       0.61854990      -0.56363650
O       -3.58754118      -2.07089536       5.08201709       1.10086909       0.69669802      -0.47282926
3
Lattice="7.94875485 -4.997e-05 4.90143315 -3.97456407 6.88389431 4.90125479 -3.97443877 -6.88377714 4.90124571" Properties=species:S:1:pos:R:3:forces:R:3 energy=-22.93341599 stress="0.0013872377559 0.00111243209822 0.000263411714115 0.00111243209822 -0.000366784955148 -0.000557604098326 0.000263411714115 -0.000557604098326 0.00179321335906" free_energy=-22.93341599 pbc="T T T"
C       -2.45537880      -1.93791631       4.88135565      -1.19517277       3.83595382       0.66762419
O       -1.99176883      -2.96174039       4.64535562       0.98190325      -2.70747130      -0.52670182
O       -2.87713293      -0.84623892       5.10404563       0.21399957      -1.12995864      -0.14213036
3
Lattice="7.94875485 -4.997e-05 4.90143315 -3.97456407 6.88389431 4.90125479 -3.97443877 -6.88377714 4.90124571" Properties=species:S:1:pos:R:3:forces:R:3 energy=-22.97761093 stress="0.000965500344917 0.00098271175572 0.000350260915504 0.00098271175572 0.000836577217892 -0.00036025922018 0.000350260915504 -0.00036025922018 0.0017971687844" free_energy=-22.97761093 pbc="T T T"
C       -2.45136556      -1.91116625       4.86467314       1.20362479      -1.09578977      -0.14705168
O       -1.64713974      -2.73733159       4.61296422      -0.21524153       0.13652020      -0.07009135
O       -3.22477451      -1.09072860       5.14896051      -0.98749389       0.95784772       0.21692993
3
Lattice="7.94875485 -4.997e-05 4.90143315 -3.97456407 6.88389431 4.90125479 -3.97443877 -6.88377714 4.90124571" Properties=species:S:1:pos:R:3:forces:R:3 energy=-22.94560507 stress="0.000511220385672 0.00050868324342 0.00169063429389 0.00050868324342 0.00176135902457 -0.000546172668256 0.00169063429389 -0.000546172668256 -4.55185583494e-05" free_energy=-22.94560507 pbc="T T T"
C       -2.47512272      -1.94423204       4.85373636       0.20058764       0.62528367       0.80095953
O       -1.70452417      -2.16074368       4.00861308       0.58544461      -0.54593348      -1.20660707
O       -3.14955596      -1.64249449       5.76152168      -0.78628972      -0.07949233       0.40570578
3
Lattice="7.94875485 -4.997e-05 4.90143315 -3.97456407 6.88389431 4.90125479 -3.97443877 -6.88377714 4.90124571" Properties=species:S:1:pos:R:3:forces:R:3 energy=-22.97122224 stress="0.0026356648981 -0.000279802385193 -0.000920092336177 -0.000279802385193 0.00203967499436 0.000363562339157 -0.000920092336177 0.000363562339157 0.00308434669801" free_energy=-22.97122224 pbc="T T T"
C       -2.43362010      -1.88739109       4.88038992       0.46584497      -0.69689279      -0.80249274
O       -1.71567231      -2.17986634       3.97536970      -0.73196028       0.53801240       1.03014247
O       -3.16956327      -1.66604151       5.77475662       0.26695022       0.15790850      -0.22820004
3
Lattice="7.94875485 -4.997e-05 4.90143315 -3.97456407 6.88389431 4.90125479 -3.97443877 -6.88377714 4.90124571" Properties=species:S:1:pos:R:3:forces:R:3 energy=-22.92023256 stress="-0.000280797674963 0.00236611495311 0.00112345791758 0.00236611495311 -0.00067660624049 -0.00116168024538 0.00112345791758 -0.00116168024538 0.00144986314233" free_energy=-22.92023256 pbc="T T T"
C       -2.41174563      -1.90967769       4.92870683      -0.24015238      -0.25811592      -0.88257297
O       -1.70755003      -2.72116413       4.48210942       1.20979393      -1.04787924      -0.09314353
O       -3.19410647      -1.10801361       5.23174598      -0.97037024       1.30603760       0.97705653
3
Lattice="7.94875485 -4.997e-05 4.90143315 -3.97456407 6.88389431 4.90125479 -3.97443877 -6.88377714 4.90124571" Properties=species:S:1:pos:R:3:forces:R:3 energy=-22.9667938 stress="0.00212807310114 -0.000446310313555 -0.000179337256748 -0.000446310313555 0.00296137361412 0.00034783336791 -0.000179337256748 0.00034783336791 0.00206790251274" free_energy=-22.9667938 pbc="T T T"
C       -2.41528694      -1.89189821       4.85676406      -0.27900406      -0.79300285       0.22168495
O       -1.97612603      -2.93774210       4.50922225      -0.10237851       0.93459507       0.07925292
O       -2.92287202      -0.90478255       5.25863955       0.38263609      -0.14312309      -0.30197024
3
Lattice="7.94875485 -4.997e-05 4.90143315 -3.97456407 6.88389431 4.90125479 -3.97443877 -6.88377714 4.90124571" Properties=species:S:1:pos:R:3:forces:R:3 energy=-22.93168032 stress="-0.00161482905593 0.000733414240818 -0.000682267582618 0.000733414240818 0.00174046356925 0.000144821467863 -0.000682267582618 0.000144821467863 0.0018598690939" free_energy=-22.93168032 pbc="T T T"
C       -2.45609033      -1.90895397       4.92131487       2.82440822      -0.61017857      -0.37141787
O       -1.30332211      -2.15342491       5.00734957      -0.27925060       0.06463329       0.40941558
O       -3.56504539      -1.67629610       4.71205476      -2.54537542       0.54627369      -0.03787572
3
Lattice="7.94875485 -4.997e-05 4.90143315 -3.97456407 6.88389431 4.90125479 -3.97443877 -6.88377714 4.90124571" Properties=species:S:1:pos:R:3:forces:R:3 energy=-22.96034458 stress="0.00433580951676 0.000604451786044 0.000178893123442 0.000604451786044 0.00209091556855 3.2105261887e-05 0.000178893123442 3.2105261887e-05 0.00195194361183" free_energy=-22.96034458 pbc="T T T"
C       -2.42658027      -1.94425306       4.88413685      -1.30384174       0.30416635      -0.21530570
O       -1.30447247      -1.58338932       4.94951137      -0.33914771      -0.40320043       0.04051729
O       -3.58604780      -2.21983300       4.79780213       1.64357291       0.09998145       0.17491492
3
Lattice="7.94875485 -4.997e-05 4.90143315 -3.97456407 6.88389431 4.90125479 -3.97443877 -6.88377714 4.90124571" Properties=species:S:1:pos:R:3:forces:R:3 energy=-22.97781629 stress="0.00109974249226 -0.000568611523956 0.000243352552358 -0.000568611523956 0.00153531039466 0.000163068588449 0.000243352552358 0.000163068588449 0.00185787843947" free_energy=-22.97781629 pbc="T T T"
C       -2.45859956      -1.89007912       4.86985809       0.43483926      -0.32007719       0.08104645
O       -1.48909130      -1.28030273       4.60708294       0.01474334       0.31654479      -0.10685558
O       -3.37739249      -2.56358733       5.15094938      -0.44987496       0.00339001       0.02649661
3
Lattice="7.94875485 -4.997e-05 4.90143315 -3.97456407 6.88389431 4.90125479 -3.97443877 -6.88377714 4.90124571" Properties=species:S:1:pos:R:3:forces:R:3 energy=-22.9337496 stress="0.00197013468991 0.000173642584961 -0.00022842117108 0.000173642584961 0.00143757620109 0.00053387351238 -0.00022842117108 0.00053387351238 0.0013083443503" free_energy=-22.9337496 pbc="T T T"
C       -2.49600765      -1.91758030       4.88887380       0.87350409       1.55570585      -1.99408270
O       -2.46502329      -1.16206990       3.97036376      -0.52457352      -0.61532105       0.81792166
O       -2.37337863      -2.66117530       5.77339365      -0.34882157      -0.93882909       1.17504101
3
Lattice="7.94875485 -4.997e-05 4.90143315 -3.97456407 6.88389431 4.90125479 -3.97443877 -6.88377714 4.90124571" Properties=species:S:1:pos:R:3:forces:R:3 energy=-22.90067901 stress="0.0027222758174 0.000322792951343 0.000719356614644 0.000322792951343 0.00212388034242 0.000307301975081 0.000719356614644 0.000307301975081 0.00254945963945" free_energy=-22.90067901 pbc="T T T"
C       -2.44592651      -1.84177162       4.88998123      -1.75400229      -1.58854436      -1.74047357
O        4.59299593      -2.06410233       9.03927290       1.36733016       0.95860366       1.28628653
O       -1.52023833      -1.81610144       5.60508632       0.38905823       0.62961531       0.45627806
3
Lattice="7.94875485 -4.997e-05 4.90143315 -3.97456407 6.88389431 4.90125479 -3.97443877 -6.88377714 4.90124571" Properties=species:S:1:pos:R:3:forces:R:3 energy=-22.88914444 stress="-0.000479668171426 -0.00207419675013 -0.00348325388571 -0.00207419675013 0.000120218949334 -0.00301348472279 -0.00348325388571 -0.00301348472279 -0.00319550527297" free_energy=-22.88914444 pbc="T T T"
C       -2.41312796      -1.93642430       4.87665148      -0.91787114      -0.19277887      -0.83470815
O       -3.03837815      -2.40159158       4.02439306      -1.11897843      -1.26443789      -1.88898533
O       -1.86224072      -1.40750756       5.72853944       2.03624222       1.45740590       2.72227694
3
Lattice="7.94875485 -4.997e-05 4.90143315 -3.97456407 6.88389431 4.90125479 -3.97443877 -6.88377714 4.90124571" Properties=species:S:1:pos:R:3:forces:R:3 energy=-22.95998785 stress="0.00118260137828 0.00101513504122 -0.000787271935956 0.00101513504122 0.000478486528918 0.00109738862568 -0.000787271935956 0.00109738862568 0.00104967033482" free_energy=-22.95998785 pbc="T T T"
C       -2.46276248      -1.91780385       4.87271836       1.71765711      -1.67352330       1.46002184
O       -3.03593038      -1.13081892       4.25265565      -1.29831331       1.45679303      -1.21304400
O       -1.82742836      -2.69225837       5.50322938      -0.41780780       0.21638503      -0.24698967
3
Lattice="7.94875485 -4.997e-05 4.90143315 -3.97456407 6.88389431 4.90125479 -3.97443877 -6.88377714 4.90124571" Properties=species:S:1:pos:R:3:forces:R:3 energy=-22.96979555 stress="0.000214220913939 0.00147629351177 0.000523928990788 0.00147629351177 0.000609064036593 -0.000459595253382 0.000523928990788 -0.000459595253382 0.001762586848" free_energy=-22.96979555 pbc="T T T"
C       -2.45064320      -1.91981017       4.89028220       1.42280449      -0.96389731      -0.62838877
O       -3.29865385      -1.17424909       5.15029635      -1.39940130       1.08924318       0.52417771
O       -1.57380256      -2.64732207       4.59240377      -0.02301312      -0.12568755       0.10412735
3
Lattice="7.94875485 -4.997e-05 4.90143315 -3.97456407 6.88389431 4.90125479 -3.97443877 -6.88377714 4.90124571" Properties=species:S:1:pos:R:3:forces:R:3 energy=-22.93057262 stress="0.00391113345972 0.000781157410333 -0.00111413386441 0.000781157410333 0.00222801083455 -0.000450935871002 -0.00111413386441 -0.000450935871002 0.00258974318195" free_energy=-22.93057262 pbc="T T T"
C       -2.43217855      -1.92896085       4.91314665       2.14117970       1.11922514      -1.81150331
O       -3.46270304      -2.27043128       5.35395107      -0.14146626      -0.19140396       0.39877651
O       -1.42361464      -1.54427059       4.37158508      -2.00070060      -0.92729993       1.41299818
3
Lattice="7.94875485 -4.997e-05 4.90143315 -3.97456407 6.88389431 4.90125479 -3.97443877 -6.88377714 4.90124571" Properties=species:S:1:pos:R:3:forces:R:3 energy=-22.88187311 stress="0.000117015207666 0.000136905193318 0.000296813605832 0.000136905193318 0.00213214893143 -2.92574859672e-05 0.000296813605832 -2.92574859672e-05 0.00189266097797" free_energy=-22.88187311 pbc="T T T"
C       -2.44520810      -2.00618658       4.88014842       0.32642579       1.58225716      -0.10081024
O       -3.58882991      -1.82174339       5.06438825      -0.64506560      -0.75220674       0.13264793
O       -1.28770665      -1.93498624       4.68591922       0.31741124      -0.83051632      -0.03249816
3
Lattice="7.94875485 -4.997e-05 4.90143315 -3.97456407 6.88389431 4.90125479 -3.97443877 -6.88377714 4.90124571" Properties=species:S:1:pos:R:3:forces:R:3 energy=-22.9741362 stress="0.0020213767683 9.52619318111e-05 -2.41354539181e-05 9.52619318111e-05 0.00197136341836 -1.33989035424e-05 -2.41354539181e-05 -1.33989035424e-05 0.00193324768929" free_energy=-22.9741362 pbc="T T T"
C       -2.43286118      -1.90584046       4.86641211      -1.74648290      -1.37766108      -0.04075876
O       -3.37161038      -2.63137674       4.75312656       1.02975566       0.81291779       0.02969378
O       -1.51419492      -1.20068154       5.00749244       0.71706100       0.56473017       0.01169175
3
Lattice="7.94875485 -4.997e-05 4.90143315 -3.97456407 6.88389431 4.90125479 -3.97443877 -6.88377714 4.90124571" Properties=species:S:1:pos:R:3:forces:R:3 energy=-22.92501823 stress="0.00164312551177 -0.00110443638175 0.000114169191851 -0.00110443638175 -0.00163411199865 0.000340363779449 0.000114169191851 0.000340363779449 0.00189496819551" free_energy=-22.92501823 pbc="T T T"
C       -2.49064056      -1.90646860       4.87388347       1.75948659       2.47177587      -0.20351069
O       -2.82866486      -3.00198708       4.98066405      -1.22864458      -2.39841749       0.21761870
O       -2.01376609      -0.82959966       4.77434641      -0.53112213      -0.07424396      -0.01420054
3
Lattice="7.94875485 -4.997e-05 4.90143315 -3.97456407 6.88389431 4.90125479 -3.97443877 -6.88377714 4.90124571" Properties=species:S:1:pos:R:3:forces:R:3 energy=-22.94799436 stress="0.00186501217856 -0.000245399798559 0.000365810880268 -0.000245399798559 0.000717073988651 0.00156366429735 0.000365810880268 0.00156366429735 -0.000100175609803" free_energy=-22.94799436 pbc="T T T"
C       -2.46796937      -1.92890533       4.85095072       0.22789371      -1.00350705       2.16390394
O       -2.54725675      -2.58328588       5.83006994      -0.25167909      -0.09864852      -0.30010336
O       -2.31219330      -1.23145787       3.94215592       0.02265838       1.10133019      -1.86343069
3
Lattice="7.94875485 -4.997e-05 4.90143315 -3.97456407 6.88389431 4.90125479 -3.97443877 -6.88377714 4.90124571" Properties=species:S:1:pos:R:3:forces:R:3 energy=-22.92956949 stress="0.00211007714512 0.000153674343268 -0.000405922450469 0.000153674343268 0.00204379175647 -0.000343417968317 -0.000405922450469 -0.000343417968317 0.00288341644112" free_energy=-22.92956949 pbc="T T T"
C       -2.38649198      -1.91776400       4.87235806      -1.45305171      -0.82687575       2.42255323
O       -2.67402763      -2.33247750       5.96129739       0.90323637       0.59610843      -1.69208688
O       -2.24658651      -1.49062984       3.79485824       0.54963034       0.23080888      -0.73033886
3
Lattice="7.94875485 -4.997e-05 4.90143315 -3.97456407 6.88389431 4.90125479 -3.97443877 -6.88377714 4.90124571" Properties=species:S:1:pos:R:3:forces:R:3 energy=-22.97073363 stress="0.00178201374489 5.57470561238e-05 -0.000518774471684 5.57470561238e-05 0.00186410322135 0.000271013017144 -0.000518774471684 0.000271013017144 -0.000217919688421" free_energy=-22.97073363 pbc="T T T"
C       -2.41983691      -1.92823798       4.86349945       0.00552430       0.07926653       1.84344239
O       -2.20673440      -2.02720932       6.02047334       0.14824033      -0.11511573      -0.29892669
O       -2.68884816      -1.78803537       3.74233229      -0.15436509       0.03651143      -1.54383588
3
Lattice="7.94875485 -4.997e-05 4.90143315 -3.97456407 6.88389431 4.90125479 -3.97443877 -6.88377714 4.90124571" Properties=species:S:1:pos:R:3:forces:R:3 energy=-22.83559894 stress="0.00181780951125 0.000321382732288 0.000509357888141 0.000321382732288 0.00139397947205 -0.00157375545696 0.000509357888141 -0.00157375545696 -0.000955747443896" free_energy=-22.83559894 pbc="T T T"
C       -2.42196444      -1.83504584       4.84475976       0.24954518      -3.80981756      -3.02388875
O       -2.58898619      -1.26063568       5.82079876      -0.32126838       2.40828606       2.56644484
O       -2.30499924      -2.62456711       3.95607459       0.07124366       1.40038272       0.45704997
3
Lattice="7.94875485 -4.997e-05 4.90143315 -3.97456407 6.88389431 4.90125479 -3.97443877 -6.88377714 4.90124571" Properties=species:S:1:pos:R:3:forces:R:3 energy=-22.88736063 stress="0.00284902133182 -0.000951192421744 -0.001233817854 -0.000951192421744 0.00320718680031 0.00167122127813 -0.001233817854 0.00167122127813 0.00407510336578" free_energy=-22.88736063 pbc="T T T"
C       -2.51116008      -1.93747069       4.85233746       1.43999614       0.47835206       0.47617497
O       -2.92814306      -1.24503298       5.73226618      -0.04252054      -1.11008911      -1.35539500
O       -1.89888432      -2.56328081       4.03891866      -1.39671676       0.63001990       0.87773625
3
Lattice="7.94875485 -4.997e-05 4.90143315 -3.97456407 6.88389431 4.90125479 -3.97443877 -6.88377714 4.90124571" Properties=species:S:1:pos:R:3:forces:R:3 energy=-22.90814535 stress="0.00418916277573 -0.0021743253052 -0.00108769565563 -0.0021743253052 0.0040156751612 0.00100945865706 -0.00108769565563 0.00100945865706 0.00248332967686" free_energy=-22.90814535 pbc="T T T"
C       -2.44092333      -1.87867720       4.84724112       1.59387741      -2.13968006      -0.21785321
O       -3.26573769      -1.17297398       5.31100854       0.42152659      -0.08135070      -0.47816887
O       -1.61401558      -2.67947517       4.46400206      -2.01448247       2.21991580       0.69515651
3
Lattice="7.94875485 -4.997e-05 4.90143315 -3.97456407 6.88389431 4.90125479 -3.97443877 -6.88377714 4.90124571" Properties=species:S:1:pos:R:3:forces:R:3 energy=-22.88077251 stress="0.0025476715844 -0.000199420473281 -0.000719568526362 -0.000199420473281 0.00225760299023 0.00026568706875 -0.000719568526362 0.00026568706875 0.00272835044105" free_energy=-22.88077251 pbc="T T T"
C       -2.41962824      -1.82337457       4.86694808      -0.23025700      -1.75448869       0.00695038
O       -3.21307242      -1.66618394       5.73211675       0.54918596       0.70813230      -0.48607012
O       -1.68266681      -2.22778024       4.02810010      -0.31886027       1.04658023       0.48009374
3
Lattice="7.94875485 -4.997e-05 4.90143315 -3.97456407 6.88389431 4.90125479 -3.97443877 -6.88377714 4.90124571" Properties=species:S:1:pos:R:3:forces:R:3 energy=-22.9783943 stress="0.00199335576898 -4.26426956386e-05 -0.000100873254485 -4.26426956386e-05 0.00192603453947 4.29467819632e-05 -0.000100873254485 4.29467819632e-05 0.00204869185918" free_energy=-22.9783943 pbc="T T T"
C       -2.44895999      -1.88868260       4.87317554       0.75892674      -0.51708423      -0.73587065
O       -3.14477021      -1.83396315       5.81604146      -0.24566374       0.22463108       0.19883646
O       -1.72895003      -2.01097492       3.93950069      -0.51433266       0.29213931       0.53707841
3
Lattice="7.94875485 -4.997e-05 4.90143315 -3.97456407 6.88389431 4.90125479 -3.97443877 -6.88377714 4.90124571" Properties=species:S:1:pos:R:3:forces:R:3 energy=-22.98327905 stress="0.00236294696281 8.93494875294e-05 -0.00036865014277 8.93494875294e-05 0.00193238448234 -8.25183804854e-05 -0.00036865014277 -8.25183804854e-05 0.0022399825234" free_energy=-22.98327905 pbc="T T T"
C       -2.43434355      -1.92874142       4.87381070      -0.64685208       0.15104396       0.49349452
O       -3.33907315      -2.12680729       5.61372701       0.63488992      -0.00344697      -0.50927664
O       -1.54561953      -1.68805920       4.14133834       0.01195434      -0.14805432       0.01588593
3
Lattice="7.94875485 -4.997e-05 4.90143315 -3.97456407 6.88389431 4.90125479 -3.97443877 -6.88377714 4.90124571" Properties=species:S:1:pos:R:3:forces:R:3 energy=-22.91444441 stress="0.000539150714588 -0.00053405681302 0.001354090705 -0.00053405681302 0.00170920079874 0.000578635961831 0.001354090705 0.000578635961831 0.000788272037929" free_energy=-22.91444441 pbc="T T T"
C       -2.47396834      -1.95124970       4.82640127       1.71907462       1.13773058      -0.13525021
O       -3.27896596      -2.27327458       5.59901185      -1.44276945      -0.80197366       0.62252128
O       -1.57598090      -1.52469515       4.19164312      -0.27727480      -0.33604186      -0.48681056
3
Lattice="7.94875485 -4.997e-05 4.90143315 -3.97456407 6.88389431 4.90125479 -3.97443877 -6.88377714 4.90124571" Properties=species:S:1:pos:R:3:forces:R:3 energy=-22.77182428 stress="0.0037401460065 0.000926296102897 -0.000969356417911 0.000926296102897 0.00227031049684 -0.000437870807059 -0.000969356417911 -0.000437870807059 0.00241463860462" free_energy=-22.77182428 pbc="T T T"
C       -2.43161527      -1.83892765       4.83931817      -5.59803943      -2.05488761       2.59946803
O       -3.55641013      -2.08014716       5.28113975       3.57528762       1.37189768      -1.68696332
O       -1.33033056      -1.80214140       4.49981871       2.02236700       0.68217946      -0.91272578
3
Lattice="7.94875485 -4.997e-05 4.90143315 -3.97456407 6.88389431 4.90125479 -3.97443877 -6.88377714 4.90124571" Properties=species:S:1:pos:R:3:forces:R:3 energy=-22.96969675 stress="-0.000348281102567 -0.00109816074405 -0.00131780708356 -0.00109816074405 0.00137689810933 -0.000650279217955 -0.00131780708356 -0.000650279217955 0.0011442511994" free_energy=-22.96969675 pbc="T T T"
C       -2.44793413      -1.89605708       4.86624848       1.03702641       0.15615981       0.70552582
O       -3.36719820      -2.35748335       4.32898645      -1.37629900      -0.50174282      -0.85668896
O       -1.50729218      -1.48191870       5.43175574       0.33941905       0.34450396       0.15037695
3