40
Lattice="7.94875485 -4.997e-05 4.90143315 -3.97456407 6.88389431 4.90125479 -3.97443877 -6.88377714 4.90124571" Properties=species:S:1:pos:R:3:forces:R:3 energy=-311.09214929 stress="0.0155830952567 0.0015017099543 0.00177641776384 0.0015017099543 0.0205237620392 -0.00136950818125 0.00177641776384 -0.00136950818125 0.014749576216" free_energy=-311.09214929 pbc="T T T"
Al       2.12743860       0.40990037       6.64104136       0.03478908       1.31828777      -1.04559363
C       -1.31717546      -1.64312298       4.83315636       1.85898803      -0.24228496      -0.68136072
H        1.27733334      -1.08178688       4.80070123      -0.24946791      -0.14812320       0.32042793
O       -5.85720393      -1.31212146       7.24944954      -0.89344807       0.26087784      -0.79044200
O       -1.19666233       5.23344688       4.85235437       0.64520843      -0.08985973       1.06775258
O       -4.26814159      -3.26834109       7.89125953       0.43175419      -0.08381152      -0.48497885
O       -2.43132195      -1.44363715       5.11072590      -0.16256673      -0.04427292       0.02473262
O       -3.38717753      -0.73032094       7.98271285      -0.14875116       0.15545560      -0.32299346
O       -2.09416773       0.93303997      12.25865136       0.98713870       0.28076269      -0.90059816
O       -1.71205002       0.00957094       9.81379288       0.78964901       0.41367586       0.62541528
O       -1.78762551       1.35915970       2.60546219       0.41151442       0.15929444      -0.66750413
O        2.22650509      -0.89141326       2.36317729      -0.51674213       0.52226708       0.22766387
O       -1.47783329       0.99286208       7.27874981      -0.51907783      -1.21440121       1.20894534
O       -0.17704788      -1.84595430       4.50070984      -2.18528335      -0.07359774       0.54751957
O       -0.81143819       1.91191634       4.90880561      -0.43964017      -0.09389264       3.72888566
O       -0.93580913       3.57453673       7.01914438       0.17874447       0.12132117      -0.25161002
O        3.42901143       1.21018908       3.56678173       0.38421830       0.18519282      -0.59950978
O       -0.91403465      -1.61737356       7.81121313       0.29422928       0.60482744       0.30272850
O       -0.58098716      -1.21439000      12.03425211       0.41964894       0.44326113      -0.47722386
O        0.80966295       1.24282139       3.02636491       0.16349383       0.21645431      -0.78267515
O        1.05196531       1.80889538       6.82304347       0.77286543      -0.83280911       0.04738059
O        0.79688934       5.61629207       6.66518392       0.54591934      -0.14337916      -0.13502067
O        0.71354212      -3.58709710       7.75540591       0.75863977       1.57638363      -0.24825934
O        1.62406039      -5.08270925       9.72189548       0.82038580      -0.07631747       2.16465198
O        0.82785956      -1.70399444       9.80529434       0.27387934       0.05917158      -1.37442913
O        1.66673567      -0.99238954       7.42798564      -0.26776208      -1.48810844       0.77055798
O        1.83710101      -0.28392334       4.89108283       0.48781351       0.50101573      -0.52285051
O        3.77680033       0.80780287       6.52246764       0.39180341      -0.07006689       0.15048388
O        4.54952225       3.31759891       6.76309078       0.54118038       1.64211992      -0.25368467
Si      -4.62631989      -1.72238119       8.21345593      -0.81303629      -0.43058094       0.53502645
Si      -1.85118642      -0.32483498       8.24487762       0.81320727       0.45796042      -1.62189772
Si      -1.79081662      -0.36741558      11.38981359      -2.01900959      -1.13890682      -0.27051310
Si      -0.54372509       2.06978699       3.39356700       0.14714703      -0.22086928      -1.92843166
Si      -0.49726650       2.06998448       6.55698930      -0.37739465      -0.26713587      -1.11797233
Si      -0.70903224       5.08277495       6.44679936      -0.09528578      -0.35499937      -1.51625713
Si       0.95700111      -5.08189008       8.28576759      -1.07025364       0.50909092       0.67059138
Si       0.68069645      -1.99475461       8.18027294      -1.27165242       0.22682340       0.42198256
Si       0.75653794      -1.88778528      11.38195996       0.55139509      -3.04124768       1.45997214
Si       2.11299473       0.38154348       3.32146944      -0.83349857      -0.56746865       1.38661853
Si       5.04245339       1.77983680       6.38658497      -0.83954065       0.96718511       0.33532716
40
Lattice="7.94875485 -4.997e-05 4.90143315 -3.97456407 6.88389431 4.90125479 -3.97443877 -6.88377714 4.90124571" Properties=species:S:1:pos:R:3:forces:R:3 energy=-310.9849251 stress="0.0239140244544 -0.00300977847099 8.74357409672e-06 -0.00300977847099 0.0291747810966 0.000564676289901 8.74357409672e-06 0.000564676289901 0.015293530627" free_energy=-310.9849251 pbc="T T T"
Al       2.15181171       0.35327104       6.74765884       0.01707472       0.34728864       0.00469462
C       -1.83361590      -1.30146304       4.21804146      -3.02961564       0.52859000      -0.12357941
H        1.04731733      -0.73411527       4.88050539       0.05375503      -0.09598512       0.16376417
O       -5.88141825      -1.38687079       7.25496099       1.02224165       1.06014297       0.79043894
O       -5.24220651      -1.41661735       9.78053371       0.33376142      -0.98357740      -0.48043985
O       -4.38184111      -3.34317746       7.92390719       0.39376859       0.27629830       1.19257135
O       -2.99559256      -1.09717066       4.09437148       1.37518194      -0.28115846       0.11656149
O       -3.40509698      -0.77128394       8.01111893      -0.58325554      -0.09132519       0.01739302
O       -1.86003326       1.10164264      12.19389972      -0.86883683      -0.06075489       0.76996395
O       -1.48646313       0.24092157       9.80945594      -0.73038862      -0.43298609      -1.43816516
O       -1.67155419       1.24450645       2.61022699      -0.10645571      -0.25805270      -0.15309151
O       -1.67296641       5.80753342       7.45271086      -0.44299396       0.50002584      -0.08297914
O       -1.57933816       1.04753858       7.32960419      -0.84095414      -0.01556796       0.22043135
O       -0.70407386      -1.53241366       4.37457137       1.71312971      -0.26290531       0.10227458
O       -0.69894937       1.50320803       4.97263547      -0.13742834       0.75693439      -1.36671296
O       -0.76921627       3.53944404       6.74961386      -0.25692961      -0.27321002      -0.24662085
O        3.61689019       1.10093107       3.43487281      -1.04399113      -0.56939285       0.08604558
O       -0.92560995      -1.52205811       7.92213135      -0.00219622       0.44411933       0.30494578
O       -0.63293966      -1.25585931      11.93488142       0.74762137      -0.33374869      -0.01559272
O        0.92158376       1.28311325       2.86175547       1.96983279      -1.21263933       0.52138313
O        0.98474389       1.61475040       6.95641081       0.16793883       0.10589165       0.03456184
O       -3.23162162      -1.09936198      11.42806191       1.59091629       0.16858136      -0.35164635
O        0.69199582      -3.52837441       7.86164340       0.93370993      -1.06283915       0.30598403
O        1.75080734      -5.16693627       9.88803168      -0.12750254       0.60604409      -0.55678271
O        0.92549651      -1.86156190       9.93085939      -0.24874619      -0.22309554      -1.29449006
O        1.67890271      -1.01851838       7.66390234       1.14303094       0.56862594      -1.19575059
O        1.87476954      -0.19345273       4.93748903      -0.90637946      -0.44965726       0.17905908
O        3.76500774       0.84058604       6.52939151       1.26956919       0.25566775       0.36837455
O        4.60653721       3.24736780       7.00997707       0.45186467       1.25778869      -0.34962029
Si      -4.67069445      -1.74861105       8.26827478      -0.80353161      -0.35027272      -0.08450541
Si      -1.92027355      -0.23016953       8.26738045       2.55287129      -0.35264428       0.16697479
Si      -1.76541013      -0.30045912      11.29113568      -1.45899740       0.79091874       2.01194593
Si      -0.45494501       1.94064722       3.40969227      -0.08227043       0.18355185       0.11746432
Si      -0.51660838       1.96741772       6.51441630       1.11361372      -1.07843622       0.84774709
Si      -0.69223300       5.07769129       6.35715052      -0.38786946       1.53494877       0.57230949
Si       1.09147957      -5.03705040       8.39439519       0.50820047      -0.44556060      -1.42174494
Si       0.63362521      -1.98075398       8.31503996      -1.30407022       0.38165535       1.09058468
Si       0.77287123      -2.01518588      11.50375144      -1.84331826      -1.69267716      -0.14566676
Si       2.20569683       0.31537129       3.36828001       0.02704620       1.11165570      -0.65426232
Si       5.11365706       1.76344638       6.51242031      -2.18107362      -0.35317074      -0.02630199
40
Lattice="7.94875485 -4.997e-05 4.90143315 -3.97456407 6.88389431 4.90125479 -3.97443877 -6.88377714 4.90124571" Properties=species:S:1:pos:R:3:forces:R:3 energy=-310.83823966 stress="0.00942996731687 -0.00843492575947 0.00200819290347 -0.00843492575947 0.0163644280035 -0.00256812969094 0.00200819290347 -0.00256812969094 0.0100155056763" free_energy=-310.83823966 pbc="T T T"
Al       2.23103564       0.26171420       6.47576377      -0.25497041      -1.21958554       2.00576955
C       -2.09066564      -1.52893818       4.78344464       1.63420297      -0.94592408      -0.49381351
H        1.68553967      -1.37826736       4.87486168      -0.48137330      -0.90613379       0.13864527
O       -5.80303689      -1.47964865       7.30606957       1.99337096       0.56117363       1.55191633
O       -0.93019034       4.94385071       4.91347262      -0.22135083       0.40814063      -0.69921003
O       -3.94643196      -3.41292737       7.84321495      -0.43210818       1.14272916       0.33556193
O       -3.19377469      -1.76983534       4.52648646      -1.90478456       0.28878687       0.06786938
O       -3.37405034      -0.79193852       7.94265523      -0.04312630       0.49544814      -0.16518974
O       -2.11798281       0.98783120      12.26223051       0.47592147       1.23516877       1.02876037
O       -1.75714104       0.39000326       9.80701540      -0.45142878      -0.45496968      -0.18850005
O       -1.77323976       1.52309017       2.52511287       0.49180922       0.16931203       0.45158630
O       -1.64832180       5.90784220       7.23146195      -0.33566174       0.39798333       0.03708498
O       -1.55700889       0.99206869       7.16185702      -0.21295576      -0.07848483       1.21976396
O       -0.92191837      -1.48801650       4.91944555       0.35738201       0.68873006       0.36257145
O       -1.01346088       2.09638414       5.00272253       0.32537034      -0.07617277      -0.05634309
O       -0.62045312       3.52084533       7.17355470       0.33619706       0.03801968      -0.13764295
O       -0.61011478      -5.63043824       8.23706018      -0.02890699      -0.30961847       0.46661711
O       -0.75003753      -1.32437384       8.02949407      -2.40227071       0.81376604       0.12905994
O       -0.43909380      -0.94070940      11.80832627      -0.06184398       0.22665489      -0.10206074
O        0.64993793       0.93431029       3.18604521       1.22637816      -0.40851064       0.18785353
O        1.07119159       1.52152041       6.54024292       0.69785439      -0.11760160       0.19508981
O       -3.00170872      -1.25073919      11.50679897      -3.09168642      -2.46483179       0.12182171
O        0.64842477      -3.53490813       7.79089206       0.62024601       0.47422183       0.45363204
O        1.43874367      -4.95056283       9.85954218       0.88494691      -0.34206906      -1.76596090
O        1.13530763      -1.64339477       9.79169860      -0.04411767      -0.58913542       1.04292452
O        1.79447760      -1.23234898       7.34899536       1.54912098       1.92779172      -1.76071856
O        2.11746021      -0.52256916       4.85458431       0.45152809       0.67270391      -0.74595542
O        3.79967679       0.85979498       6.67456659      -0.25289651       0.00364221       0.03700910
O        4.48249138       3.49930348       6.87458382      -0.39183758      -1.63426156      -0.18146906
Si      -4.49715229      -1.87715717       8.23869040      -1.48025588      -1.77130745      -0.80838811
Si      -1.95102473      -0.16528287       8.27428489       3.86106599       0.02461566      -0.67702401
Si      -1.83160942      -0.25046097      11.32888739       2.44735482       0.70697262      -1.18294523
Si      -0.54102387       2.01858185       3.47252782      -0.21890938      -0.02303712      -1.22154514
Si      -0.41567318       2.01021477       6.54154962      -2.34518010      -0.10065372      -0.47097888
Si      -0.55640080       4.99085663       6.46988069       1.04835627      -0.07284700       0.43679832
Si       0.93673951      -5.05095800       8.33117946      -1.55585076       2.02985471      -0.01385703
Si       0.72080135      -1.92595408       8.23786568      -0.30444134      -1.33040036       0.64294680
Si       0.83859025      -1.86313867      11.39473778      -0.63223396       0.24024352      -1.58599356
Si       2.12599570       0.26491968       3.34862204      -1.00533532      -0.11761747      -0.60480015
Si       4.93246998       1.95358715       6.46914461      -0.24847979       0.41589750       1.94753787
40
Lattice="7.94875485 -4.997e-05 4.90143315 -3.97456407 6.88389431 4.90125479 -3.97443877 -6.88377714 4.90124571" Properties=species:S:1:pos:R:3:forces:R:3 energy=-311.16765218 stress="0.0276588797107 -0.00232349249869 0.00370649115266 -0.00232349249869 0.0200122150478 2.5933089686e-05 0.00370649115266 2.5933089686e-05 0.0146805851831" free_energy=-311.16765218 pbc="T T T"
Al       2.19360873       0.32811972       6.63848452      -0.27856821       0.24710320       1.32058423
C       -1.86887430      -1.94290162       4.70243787      -1.16715380       0.79802593      -0.75550980
H        1.02553839      -0.76970475       5.05309505       0.54289927      -0.29632724      -0.28705265
O       -5.79050603      -1.31968095       7.21547315       0.04693422       0.16559229      -0.10739981
O       -5.09152374      -1.58354588       9.72232686      -0.47202171      -0.14482734       1.07498422
O       -4.18110402      -3.37212164       7.87275634      -0.25115606       0.77679688       0.59708672
O       -3.03619522      -1.81699722       4.51816926       1.47816522      -0.49338200       0.56191153
O       -3.27736271      -0.86215654       7.99992128       0.08069273       0.12123039      -0.34802704
O       -1.97597804       1.09196014      12.20992493      -0.38477923       0.34396960       1.02751399
O       -1.70899479       0.23691511       9.81764227       0.26058345      -0.10288495      -0.56058301
O       -1.79392913       1.37522815       2.50223750       1.63922751       0.29406188       0.36411938
O       -1.57120629       5.92006496       7.30158585      -1.59268028       0.72380380       0.65881759
O       -1.75324486       1.18740866       7.32298862      -0.02712963       0.07261452       0.07205909
O       -0.68961808      -1.98071749       4.79137312      -0.20869019      -0.14780438       0.17790901
O       -1.05405008       1.71388754       4.89636512       1.14652133       0.32208912       0.28345909
O       -0.71998588       3.56763655       6.82530877      -0.21803594      -0.66262896       0.00732027
O        3.58044539       1.11027113       3.57473813      -1.35045307      -0.58092028      -0.28532360
O       -0.67899403      -1.25582693       7.84370208      -0.75995879       0.44736392      -0.31450109
O       -0.52330393      -1.05425271      11.90839346       0.33587838       0.18394621      -0.19528229
O        0.86108181       1.11636926       3.08669345       0.70645318      -0.53547775      -0.27853383
O        0.91408899       1.54124505       6.86852334      -0.35855702      -0.69015510      -0.70490752
O       -3.09370056      -1.21519577      11.47020160      -2.49067676      -1.89633897       0.17190088
O        0.72427714      -3.48203600       7.67097523       0.21031116      -1.68402599       0.55722177
O        1.62931923      -4.75744740       9.85262860      -0.04878562      -0.16082857       0.00237566
O        0.84909929      -1.94186634       9.85074079       0.40189793       0.18159061      -0.61900493
O        1.90745776      -1.14626519       7.54101832       0.91998462       1.12744260      -0.59545805
O        1.95115976      -0.40151381       4.96076213      -1.30244226      -0.19852984      -0.61209847
O        3.76155074       0.96855253       6.54813734       0.18599268       0.31840214      -0.07179202
O        4.47563388       3.48704614       7.07648842       0.73307914      -1.83821499      -0.16187281
Si      -4.60029766      -1.76941996       8.21978120       1.13450580      -0.92157452      -1.63911148
Si      -1.81366928      -0.14298480       8.22079685      -0.56071400      -1.29146409       1.32398031
Si      -1.85522151      -0.29149337      11.35969434       2.70749035       1.72641282      -0.65452506
Si      -0.49516057       1.94753222       3.35677671      -2.10070881       0.44222931       0.30627829
Si      -0.61041167       1.97645822       6.48459661       1.07393384      -0.06719339      -0.53729016
Si      -0.63529732       5.07812822       6.35104529       1.54742409      -0.04290059      -0.63406088
Si       1.04615481      -4.98501389       8.35265952      -0.69922209       1.16380913      -0.97947563
Si       0.74305745      -1.96180913       8.22745782      -0.24706537       0.29521613       0.37958988
Si       0.80215988      -1.91245923      11.44053754      -1.15623928       0.86440864       0.41163393
Si       2.18915905       0.24861537       3.39626909       1.41055616       1.45489086       0.78673547
Si       4.98309094       2.01002787       6.48243636      -0.88951392      -0.31638638       0.25597469
40
Lattice="7.94875485 -4.997e-05 4.90143315 -3.97456407 6.88389431 4.90125479 -3.97443877 -6.88377714 4.90124571" Properties=species:S:1:pos:R:3:forces:R:3 energy=-311.00532561 stress="0.019439397633 -0.00235673794074 -0.00142979892495 -0.00235673794074 0.0207470269123 0.0076033401136 -0.00142979892495 0.0076033401136 0.0224864699511" free_energy=-311.00532561 pbc="T T T"
Al       2.15541147       0.44172869       6.78901440       0.58022130      -0.28519981      -1.00628115
C       -1.92937950      -1.93638048       4.51003568       0.03518045      -0.35863502       0.17194076
H        1.61085329      -1.16217384       4.95214088      -0.55939820      -1.19472879       0.05055042
O       -5.74312110      -1.38049367       7.22925681       0.62175916       0.67825453      -0.00852103
O       -1.19536041       5.14291899       4.85257234       1.01357913       0.63585077      -0.01751895
O       -4.21185736      -3.40997683       7.86986779       0.35851579       0.54359250       0.18371426
O       -3.04243316      -2.31481951       4.48584401       0.16185010       0.25693585      -0.05392925
O       -3.24547938      -0.80949345       7.96263243      -0.97957258      -0.91303127       0.74725876
O       -2.30530405       0.90792700      12.18836124      -1.00906688       1.56383701       2.00207314
O       -1.55796709       0.30246785       9.83962099      -0.09293382      -0.38058176      -2.11241729
O       -1.85319003       1.33301720       2.54447136      -0.27515452       0.12184629      -1.23949713
O       -1.39688330       5.99335300       7.37152382      -0.04189014       0.49533292       0.09593186
O       -1.62334639       1.03292285       7.27903065       0.34041014      -0.05197608       0.36368029
O       -0.79454749      -1.61690882       4.55674774      -0.14108299       0.14486492      -0.09852591
O       -0.93450876       1.79656402       4.88332491       0.80940864      -0.38263164       0.48353609
O       -0.88926481       3.55219759       6.87172986       0.35182764      -2.41751420       0.42345484
O       -0.75016318      -5.36768670       8.44057888       1.29775811       0.29424629      -0.23909571
O       -0.68951175      -1.42874829       7.83176010      -0.34142330       0.96425422       0.80430486
O       -0.33076276      -0.85090271      11.86644730      -1.33555908       0.26960723       0.25942330
O        0.74920735       0.97250176       2.84511998      -0.74672172       0.35333141       0.35963839
O        0.95777915       1.63031735       6.83817476       0.47944543       0.01619306       0.35014241
O        1.05930935       5.33526793       6.44770178       0.11942618       0.74754354      -0.46658919
O        0.86677109      -3.45123307       7.70639539       0.44174327       1.21776014      -0.60472022
O        1.41965901      -4.73236313       9.83710853       0.58309740      -0.58069435      -0.41533035
O        0.88469877      -1.99673899       9.91721250       0.19194697       0.14538039      -1.05873943
O        1.96037955      -1.00429163       7.66549185       0.14744878       0.01895810       0.17011224
O        1.96778279      -0.27850956       4.96856903       0.22255802       1.08588238      -0.34317727
O        3.66951226       1.13739690       6.58680969      -0.77379804      -0.97214521       0.19362340
O        4.56815682       3.48187229       7.26922650       0.16018373      -0.34434689      -1.30039650
Si      -4.53467217      -1.79925212       8.23763992      -0.42751047      -1.21090181      -0.73524430
Si      -1.75886762      -0.24221225       8.28690921       0.39629778       0.18886222      -0.88981156
Si      -1.77417785      -0.31273586      11.29505207      -0.32039304      -1.38905435       1.49234442
Si      -0.55545662       1.88575415       3.30221822       0.44361019       1.07939185       0.63297683
Si      -0.52942133       1.94948177       6.47794156      -2.34981777       1.53406621      -0.50424111
Si      -0.57113241       5.01360174       6.37021119       0.46858902       0.70024176      -0.38451356
Si       0.85738485      -4.92438864       8.30689405      -0.20402586      -1.01052113       0.05356385
Si       0.81857483      -1.90206484       8.31014242      -0.72903758      -1.27439721      -0.55621970
Si       0.81497087      -1.92596695      11.49935968       0.59259577       0.08984018       1.36211930
Si       2.13605309       0.36735268       3.37092357       0.04730985      -0.63251747       0.35100337
Si       4.93541430       2.03747551       6.49273913       0.46269132       0.25393465       1.48193375
40
Lattice="7.94875485 -4.997e-05 4.90143315 -3.97456407 6.88389431 4.90125479 -3.97443877 -6.88377714 4.90124571" Properties=species:S:1:pos:R:3:forces:R:3 energy=-310.64425739 stress="0.0245990218109 -0.00391978241878 -0.00271876961844 -0.00391978241878 0.020257226094 -0.000212322097067 -0.00271876961844 -0.000212322097067 0.00215866502176" free_energy=-310.64425739 pbc="T T T"
Al       2.22609942       0.34521925       6.71985655      -1.54994913      -0.54480190       0.18251690
C       -1.52985649      -1.75668041       4.62970675       4.19500450      -1.20692394       0.01343507
H        1.09219118      -0.83336989       5.02144866      -0.97537812      -1.10933865      -0.14445148
O       -5.96585407      -1.38514137       7.37242780       1.40754014       1.49389991       0.38424325
O       -4.93749938      -1.56149053       9.71676488      -0.36530981       0.60313479       2.31985695
O       -4.32248918      -3.31445251       7.98417841       0.48563508       0.75239864       0.17728779
O       -2.54755860      -1.45506318       5.09834178      -1.02698816       0.21266477      -0.39956650
O       -3.35221762      -0.80159921       7.70477517      -0.61169536      -0.55488013       0.59732244
O       -1.94942751       1.23586517      12.07201077      -0.69925876       0.63559635       1.63504614
O       -1.79478729       0.07505315       9.78358968       0.17388705      -0.27733929      -1.89477363
O       -1.71463505       1.50736076       2.46324932       1.28115048      -1.14180352       1.47343001
O        2.16477875      -0.94167952       2.37393861       0.16693967      -1.76350241      -1.03136681
O       -1.69838263       1.05804135       7.40037633       0.38099022       0.82877646      -0.70271790
O       -0.38637366      -2.08819457       4.33534323      -3.14195874       1.08024005       0.32325453
O       -0.82855573       1.67107857       4.97205940      -0.17914844      -0.83599479      -1.24207052
O       -0.81649995       3.50142325       6.74790657       0.37660810      -0.22598308       0.33036470
O        3.57795970       1.00192732       3.47567301      -0.78074194       0.40036352      -0.00052063
O       -0.77284278      -1.46816705       7.74390828      -0.81719596       0.94439031       0.62433340
O       -0.62134643      -1.15434066      11.83211803      -0.32636723       0.70166637       0.27624529
O        0.93143995       1.34730304       2.88430199       0.14675824      -0.75699913       0.98628185
O        0.89226437       1.42069579       7.00509238       0.05160518       0.30670209      -0.20178130
O        0.69553601       5.93062681       6.81230171      -0.39823568      -1.69794340      -0.57949943
O        0.78242980      -3.47793674       7.87817949      -0.34982991      -0.50152409      -0.05849978
O        1.62129552      -5.02766967       9.82361954       0.39039671       0.10294291      -0.74675237
O        0.90906999      -1.69377464       9.85947915       0.31048704       0.05238743       0.58010078
O        1.90693460      -1.13305608       7.53657425      -0.49846402      -0.27549694       0.14183626
O        1.78619528      -0.18193023       4.92465962       0.61093477       0.29789009       0.32641895
O        3.77777472       0.86759371       6.50305365       0.71669558       0.05141526       0.31949950
O        4.50742560       3.38298939       6.92869617       0.23079276      -0.21776958      -0.85527163
Si      -4.61920865      -1.70518327       8.18923887       0.72811829      -1.60440262      -1.31946054
Si      -1.87751009      -0.31868208       8.20531967       0.06570047      -0.27982762      -0.19124871
Si      -1.85964595      -0.20359599      11.34066430      -0.50142499      -1.02737337       1.57258695
Si      -0.49187719       1.99664797       3.43896105      -0.05841229       0.51346219      -2.23510857
Si      -0.57797978       1.85743044       6.53468799       0.53700146       1.33868472       1.75094473
Si      -0.67405089       5.06252656       6.39481079       0.29933693       1.83200225       0.79364795
Si       0.97625846      -5.00336898       8.34114138       1.02306800      -0.82943776      -1.40314382
Si       0.70225444      -1.92469540       8.30111000       1.30731683       0.60030840      -1.67966745
Si       0.76918955      -1.91590577      11.44628960      -2.54059899      -1.50981559      -0.37582282
Si       2.11655361       0.29102281       3.35459445       0.38097592       2.06722964      -0.39314166
Si       5.00302322       1.86466270       6.42343571      -0.44696321       1.54573423       0.64811886
40
Lattice="7.94875485 -4.997e-05 4.90143315 -3.97456407 6.88389431 4.90125479 -3.97443877 -6.88377714 4.90124571" Properties=species:S:1:pos:R:3:forces:R:3 energy=-311.14317644 stress="0.0201907100566 0.00109751833048 0.000946437484054 0.00109751833048 0.0258258288586 0.00132080067361 0.000946437484054 0.00132080067361 0.0131840573291" free_energy=-311.14317644 pbc="T T T"
Al       2.07420114       0.40377288       6.70323063       1.41299141       1.24221886      -0.25338768
C       -1.81433351      -1.58286248       4.72241198      -3.57113352       0.60912258       0.86825172
H        1.33549515      -1.11127414       4.96225422       0.08048916       0.18729411       0.05777810
O       -5.68883078      -1.24346835       7.16255476      -1.14595860      -0.50191851      -0.79094051
O       -5.30703044      -1.49514984       9.74749454       0.13697024       0.53500238       0.20285409
O       -4.33548065      -3.33360803       8.25677090       0.51559259      -1.67283788      -0.74973956
O       -2.94874615      -1.42084237       4.99671617       0.42580997      -0.11135033      -0.10055739
O       -3.27510726      -0.93735576       8.07983259      -0.74066815       0.09482276      -0.01128643
O       -2.08926676       0.88368571      12.34947990       0.10355360       0.27383642       0.13463456
O       -1.61264816       0.30655505       9.85052895      -0.00657015      -0.14749990      -0.46775653
O       -1.67068885       1.34974331       2.46428303      -0.75513270      -0.21482847      -0.96243659
O       -1.60813360       5.92692584       7.35581428       0.06450442       1.00143606       1.25838585
O       -1.64651986       1.08535919       7.44997576       0.13575912      -0.03942251      -0.69335034
O       -0.71311564      -1.74518218       4.44056161       3.22739224      -0.47399305      -0.74877834
O       -0.88551070       1.49922456       4.91655984       0.19294144      -0.52427103      -0.37754630
O       -0.97344069       3.50576128       6.62580775       0.67549059      -0.44103193       0.31758703
O       -0.50172159      -5.59007453       8.40500941      -0.93356370      -0.53611072       0.28536293
O       -0.76668739      -1.42339299       7.90804700       1.12447397      -0.14651415       0.06549742
O       -0.42821387      -1.09482404      11.82794746      -1.52363790       0.81170863      -0.20233015
O        0.89495148       1.19447960       2.92946652       0.25293476       0.09482347      -0.08533908