37
Lattice="7.94875485 -4.997e-05 4.90143315 -3.97456407 6.88389431 4.90125479 -3.97443877 -6.88377714 4.90124571" Properties=species:S:1:pos:R:3:forces:R:3 energy=-287.33936483 stress="0.00636969223462033 -0.008497344502007604 -0.0016107433765394762 -0.008497344502007604 0.007946510924396582 -0.00022924212925826265 -0.0016107433765394762 -0.00022924212925826265 0.019863421377419217" free_energy=-287.33936483 pbc="T T T"
Al       2.04639684       0.40536175       6.80262125       0.57925138      -0.73493116      -1.02032060
H        1.95378282      -1.27312900       4.90210324       0.06509760       0.12419750       0.18146546
O        2.15693507      -1.20282335      12.02621445       1.04755306       0.31288578       1.02865340
O       -5.10995133      -1.73713389       9.65633164      -0.49338286       0.78739878       3.03138439
O       -4.32770131      -3.28082099       7.83676426       0.71363731      -1.01352939       0.09394710
O       -3.38193629      -0.67252513       7.95047327      -1.16828573      -1.05194197      -0.62926584
O       -1.82241936       0.06553694       9.82189721       0.44320139      -0.27312440       1.22491986
O       -1.77903625       1.44771037       2.44998730      -1.06617012      -0.53549794      -0.69758654
O       -1.60185086       1.08727019       7.42863992      -0.10189276      -0.70173935       0.47452279
O       -1.12146449       1.97133517       5.00714727      -0.60441544       0.03550854      -1.58706851
O       -0.90946392       3.63586971       6.90673320      -0.33193729      -1.05515272       1.04103749
O       -0.84359765      -1.55558231       7.80346165      -1.49408398       0.56595522       0.40102001
O       -0.67502389      -5.53687879       8.06269931       1.53496275       1.54656564       0.04679040
O       -0.57742386      -1.11618719      11.93908318       0.77087224      -0.26739969      -1.01632679
O        0.62706563       1.07319003       3.30655157      -0.05649019       0.92545573      -0.08512249
O        0.71092347       5.55407763       6.70782779       1.83853004       1.13029278      -0.12371935
O        0.84288241       1.56836366       6.67111642       0.22697386       0.74872664       0.27379517
O        0.98771436      -3.54364477       7.63197410      -0.67574192       1.31272967      -0.18553679
O        1.26224148      -4.96384521       9.85046640      -0.65406367       0.16468472      -0.11210229
O        0.99491854      -1.91522229       9.77010795      -0.78256823       0.01281541       2.41904591
O        1.71397645      -1.09406437       7.51756869       0.34798085       0.51674186      -0.49005231
O        1.87964614      -6.00510572       7.60978489       1.17763164      -1.74547170      -2.29161068
O        2.15653446      -0.31600636       4.93930024       0.05706882       0.10753784      -0.57268376
O        2.08159228      -0.75496258       2.28143036       1.39849163      -2.78907380      -2.06388559
O        3.61091960       1.03567501       6.92144281       0.32439972       0.48420890       0.04498864
O        4.68535656       3.51924781       7.06649548      -0.60846042      -1.51486476       0.28089732
Si      -4.58352336      -1.71609989       8.17981855      -1.36946812      -0.24375380      -2.69105097
Si      -1.86728814      -0.33029070       8.22642447       1.38325454       1.71559182       0.13902412
Si      -1.92847494      -0.35964227      11.41824149       0.17508681      -0.04800189       0.29358915
Si      -0.65461175       2.06622581       6.53817335      -0.44806178      -0.32926647       0.18691960
Si      -0.70269022       2.04564096       3.43422137       1.66324003       0.47608014       0.57954958
Si      -0.77308239       5.11481520       6.36181839      -2.13046644       1.28239699      -0.09642829
Si       0.86668544      -4.99863369       8.25209871      -0.82019961       0.01889901       2.35202527
Si       0.64362243      -2.03207308       8.22191384       1.66059068      -0.26202050      -0.93477565
Si       0.83579916      -1.88767295      11.43013180      -1.22518181       1.46607309      -1.28738717
Si       2.08305420       0.40049039       3.34654601      -2.27477868      -0.42456021       1.64359022
Si       4.83387631       1.98091823       6.53882349       0.89845894      -0.74635024       0.14821642
37
Lattice="7.94875485 -4.997e-05 4.90143315 -3.97456407 6.88389431 4.90125479 -3.97443877 -6.88377714 4.90124571" Properties=species:S:1:pos:R:3:forces:R:3 energy=-287.64822911 stress="0.012579818216256426 0.002082419270563357 -0.0026540756585729853 0.002082419270563357 0.01912885812470345 -0.0007494966187937525 -0.0026540756585729853 -0.0007494966187937525 0.005311198172240863" free_energy=-287.64822911 pbc="T T T"
Al       2.08198913       0.35528563       6.55531370       0.28110950      -0.19810087       0.34840868
H        1.46635277      -1.36631853       4.93716159       0.18512576       0.13735594      -0.05229396
O       -5.80157178      -1.24068673       7.19280491      -1.34942097      -0.03182418      -0.78899665
O       -5.19752514      -1.43283597       9.81936605       0.37599322      -0.19152011      -1.08403354
O       -4.38552529      -3.23495279       8.19370963       0.64016210      -2.50590374      -0.25968316
O       -3.41819640      -0.75994618       7.80779735      -0.21497363      -0.15741343       0.51201586
O       -1.85212305       0.15815096       9.85155784       0.18421942       0.26242849      -0.82016835
O       -1.70131253       1.49092150       2.43682865       1.08752720      -0.75614025       1.14694945
O       -1.62117256       1.04384149       7.44408161       0.38794976       0.76971407      -0.22706258
O       -1.21082438       1.81417283       5.01742036      -0.46845293      -0.36932488       0.95713260
O       -0.90699682       3.56790408       6.95432218       0.13336113       0.44571866      -0.00170845
O       -0.92192821      -1.48500532       8.00378576      -1.04559637       0.30501627       0.10723531
O        3.41027990       1.18913891       3.43509550      -1.42942250      -0.46183278       0.05957702
O       -0.46479872      -1.04930153      11.73515433      -0.68082463       0.42795786       0.15272388
O        0.74276484       1.18407468       3.31835068      -0.61016552       0.71365871      -0.34310872
O        0.73621646       5.71409518       6.61527060       1.27958490      -0.28084551       0.79091650
O        0.93235122       1.65841427       6.52877083      -0.93177331      -0.10042919       0.45072971
O        0.66127821      -3.51691237       7.68816127       0.00707240      -0.70066039       0.68171042
O        1.53005286      -5.09626715       9.82620207      -0.56704300       0.86913286       0.70110356
O        1.13097021      -1.90317743       9.72579518       0.10457392       0.33288915       1.65674964
O        1.63584592      -1.11523554       7.33207828      -0.88968622      -0.20282591       0.89685632
O       -2.05111271       1.05338555      12.28902283      -0.32450482       0.62512061       0.69668856
O        1.98125501      -0.53583037       4.88977843       0.25340853       1.05250894      -0.70492298
O        2.14870717      -0.90653324       2.33243845      -1.12948907       1.68508526       1.71536188
O        3.69767939       0.97101786       6.62078316      -0.41404277      -0.22260495       0.48512037
O        4.56287902       3.47395865       6.90161665       0.10807131      -0.16954392       0.04910485
Si      -4.68738865      -1.66787337       8.26321751      -0.19417181       0.12014926       0.92064601
Si      -1.96528479      -0.26451414       8.28525737       0.26488476      -0.32601054       0.72277478
Si      -1.84280910      -0.26052612      11.40767412      -1.33730648      -0.81191034      -0.49280433
Si      -0.66957527       2.00353280       6.57130879       1.19463147      -0.10821521      -1.16057381
Si      -0.65417176       1.99761535       3.55016132       0.51978853       2.12390070      -1.12728084
Si      -0.74690434       5.11101621       6.44246344       0.36295517      -0.18450216      -1.02375084
Si       0.85985815      -5.00463057       8.35368430       2.49907279       0.58975101      -0.53683419
Si       0.57183091      -1.98116151       8.25176357       2.31518407       0.37887241      -3.01215949
Si       0.85060070      -1.88268058      11.31129165       0.56124436      -0.17453097       1.01266866
Si       2.07433494       0.34855238       3.38570252       0.00309272      -2.71299541       0.10662592
Si       4.96637251       1.93603108       6.53151038      -1.16241627      -0.17653247      -2.53694181
37
Lattice="7.94875485 -4.997e-05 4.90143315 -3.97456407 6.88389431 4.90125479 -3.97443877 -6.88377714 4.90124571" Properties=species:S:1:pos:R:3:forces:R:3 energy=-287.80559956 stress="0.01626873355384815 -0.004435665211773886 0.0006404921009817297 -0.004435665211773886 0.011397631523846537 -0.004197992857143057 0.0006404921009817297 -0.004197992857143057 0.019654037171180774" free_energy=-287.80559956 pbc="T T T"
Al       2.09952019       0.33516416       6.58626010      -0.03987563       1.51022818       0.38956923
H        2.28588346      -1.31825932       5.01400720      -0.33861626       0.35799354      -0.60194837
O       -5.96322131      -1.16570207       7.44350347      -0.61419098      -0.09776365      -0.80891872
O       -1.06983693       5.11109210       4.94736247       0.02787070       0.06763029      -0.13157467
O       -4.35956654      -3.20690478       7.75498432       0.20423806      -3.35401702      -0.31382069
O       -3.37037823      -0.97952902       7.89168745       0.45502454       1.26173164      -0.12648776
O       -1.95978437       0.11338162       9.82419620       0.06533686       0.14038732      -0.39131118
O       -1.76089494       1.37280421       2.49112330       0.79331336      -0.04128805       0.53952563
O       -1.83159190       0.99761378       7.22243886       0.15104388       0.07376379       0.52686267
O       -1.07658723       2.05504920       4.94114671       0.31850225       0.21964952      -1.80759211
O       -0.97303277       3.51646877       7.12992061       0.28006402      -1.51545516      -0.05268207
O       -0.87270751      -1.42686600       7.95694065       1.08573188       0.31790616      -0.06496664
O       -0.55845067      -5.60212723       8.33939551      -0.60433659       0.14383114       0.05374872
O       -0.60237150      -1.06726178      11.84095221      -0.30136774       0.39810758      -0.63116843
O        0.76250735       1.26634066       3.11965811       1.05896409      -0.49809876       0.18635032
O        0.79494723       5.47629869       6.78627614       0.44244301      -0.08845084       0.08705007
O        0.75359340       1.45788212       6.77047426       0.84389590      -0.36783265      -0.07989817
O        0.68915410      -3.38970328       7.75938646       0.59203963      -2.50440662       0.09878858
O        1.52914642      -5.04247225       9.83721396      -0.27045412       0.70488723      -0.49263099
O        1.09631138      -1.71696120       9.79409038      -0.30895064       0.16545875       0.58084564
O        1.92350271      -1.12003850       7.44299648      -1.26252126      -0.62679925       0.43012205
O       -2.24955707       1.04665107      12.19136909       1.05584273      -0.23717022      -0.44159296
O        1.91169295      -0.41322996       4.86806894       0.25598719       0.14831127       0.68663411
O        2.27002159      -0.97443933       2.45308687      -0.68474273       1.67528130       0.34475658
O        3.67709829       1.03668104       6.68241359      -0.39539391      -0.00557016      -0.06199721
O        4.65449710       3.49237884       6.94979237      -0.08528746       0.82361053      -0.33207025
Si      -4.68504027      -1.75592954       8.26775796      -1.63001259       1.11288336       0.05225430
Si      -1.97370436      -0.27059653       8.23011116      -0.08318622       0.22310840       0.09109985
Si      -2.01588191      -0.33339272      11.38794741       1.49870026      -0.31105533      -0.27817656
Si      -0.73044179       1.98997505       6.51767574      -0.08710065      -0.13614113       0.44017000
Si      -0.61201749       2.13017257       3.33757940       0.01735611      -0.40235233       1.44718322
Si      -0.70132843       4.95695158       6.50786488      -0.59056288       0.92841610      -0.00941943
Si       0.92652131      -4.92620170       8.30900164      -0.67616397       0.90752846       1.43676981
Si       0.68624684      -1.86369169       8.21865445       1.05911351       1.10605267      -0.09254617
Si       0.78753237      -1.81187485      11.37556261       0.18032903      -0.05787138       1.69192060
Si       2.11799463       0.38368835       3.36273008      -1.09484287      -1.14590083      -0.60020614
Si       4.97947244       1.96723744       6.52873249      -1.31684411      -0.89821015      -1.76619431
37
Lattice="7.94875485 -4.997e-05 4.90143315 -3.97456407 6.88389431 4.90125479 -3.97443877 -6.88377714 4.90124571" Properties=species:S:1:pos:R:3:forces:R:3 energy=-287.24883307 stress="0.017178060566292345 0.00023593747723721624 0.005744548915839479 0.00023593747723721624 0.014912787585222517 -0.0007572167788806121 0.005744548915839479 -0.0007572167788806121 0.02126638303646379" free_energy=-287.24883307 pbc="T T T"
Al       2.13640363       0.42016839       6.82773901       0.48918754      -0.22373847      -0.99488451
H        1.84589749      -1.38227038       5.20905804       0.07811067      -0.17300021      -0.54283948
O        1.95797486      -1.25047323      12.11874675      -0.10329447      -0.76741287      -0.38269607
O       -5.20200605      -1.47402759       9.84164408       0.02332578      -0.15416518      -1.86044984
O       -4.43625689      -3.27877752       7.98237796       0.45652583      -0.75201847       0.46146979
O       -3.45590117      -0.81246307       7.95009474       0.42855149       0.50286478      -0.62211219
O       -1.65378092      -0.02028700       9.76707211      -0.29570129       0.34356814      -1.95643489
O       -1.68545316       1.33622828       2.51071272      -1.65805604       1.36114063      -0.84122523
O       -1.60530916       1.20795646       7.44322512      -1.85687042      -1.13299113       1.08353352
O       -1.05102314       1.76339550       5.01396500      -0.03760222       0.16069905      -0.46893576
O       -0.69584783       3.58316659       6.86581319      -0.38432145       1.49548637       0.33663572
O       -0.76054277      -1.25166498       7.61666866      -1.33124424      -0.05624549      -0.07506920
O       -0.63449520      -5.59098586       8.23615304      -0.70360700      -0.99847188       0.21232007
O       -0.59519832      -1.05180281      11.99288616       0.01153393      -0.21851245      -0.77944680
O        0.75226716       1.17397156       3.12801737       1.95989669      -0.88656427       0.28332469
O        0.78129961       5.67921186       6.60742770       0.69491493       0.72319942       0.46278520
O        0.91048648       1.54108457       6.70682971      -0.05471053       0.70222867       0.30858133
O        0.79758076      -3.46262772       7.62048399      -0.14792820      -1.16475083       0.64363923
O        1.44610704      -5.06699087       9.84237537      -0.39677292       0.62306173      -0.96886064
O        0.68868277      -1.91684956       9.80664743       0.01552430       0.26029180      -4.24370970
O        1.88158749      -1.00644832       7.66198100      -0.95610207      -1.69090241       0.60730016
O       -2.00265476       1.12307283      12.19175092      -0.86230380      -0.14482382       0.10612325
O        1.91124208      -0.43302888       5.00709290       0.17167195       1.09656902       0.44754718
O        2.20396966      -1.04651914       2.54826153      -0.67373781       0.98868698       0.61509617
O        3.73428025       0.91649224       6.73970013       0.35155266       0.24880619       0.19999673
O        4.37392394       3.42455853       6.87207832       0.36498206      -0.91416126       0.98759637
Si      -4.77899855      -1.70036819       8.21134683      -1.16425368      -0.48206583       1.37622028
Si      -1.97475758      -0.22750401       8.11953387       2.24474813       0.27943838       1.68136024
Si      -1.85962336      -0.26367006      11.32510946      -0.20180812      -0.54795150       1.18218163
Si      -0.58876875       2.04016787       6.54746507       0.67583562      -0.58022003      -0.85758538
Si      -0.56093106       1.98883345       3.49862884      -2.09319631       1.13744050      -1.03481941
Si      -0.72079625       5.15674446       6.45485267       0.38571484      -1.28385797      -0.96355309
Si       0.89036201      -5.02049679       8.27496804       0.98583304       1.30869741       0.50517380
Si       0.61669700      -1.93428923       8.12296930       1.50195564       0.90472881       1.45944294
Si       0.62359190      -1.95070256      11.33015455       0.43956374       2.33287610       3.99444833
Si       2.05887835       0.27315736       3.47080384       0.20018997       0.27374085      -0.17505087
Si       4.93023574       1.95409184       6.53132923       1.44185920      -2.57280037      -0.18641174
37
Lattice="7.94875485 -4.997e-05 4.90143315 -3.97456407 6.88389431 4.90125479 -3.97443877 -6.88377714 4.90124571" Properties=species:S:1:pos:R:3:forces:R:3 energy=-287.48058437 stress="0.011486738628610504 -0.0013906826070695338 -0.0008947682867099792 -0.0013906826070695338 0.025776988650214116 0.0019745170032629653 -0.0008947682867099792 0.0019745170032629653 0.014423180091381847" free_energy=-287.48058437 pbc="T T T"
Al       2.19468518       0.37233431       6.69805932      -2.02350031      -0.82926277       0.21926283
H        1.87151087      -1.41157180       4.80286092      -0.07184214      -0.42348164       0.40188527
O       -5.89200211      -1.15731917       7.29309249      -1.41498423      -0.22398098      -1.22722687
O       -5.22415052      -1.43277090       9.69434001       0.55800330      -0.66337180      -0.81424091
O       -4.33310811      -3.34965107       7.90460049      -0.15567921       1.79586592      -0.08958691
O       -3.34140386      -0.78311272       7.77482518       0.46608127      -0.53179640       0.61255526
O       -1.79037266       0.11845692       9.76693179      -0.32386590      -0.18499469       3.53378543
O       -1.81902981       1.28916102       2.51781441       1.11695040       0.14192195       0.19090714
O       -1.46178556       1.06274582       7.40243993      -0.48145241      -0.01571000       0.21223909
O       -1.13557538       1.86259242       4.95694496       0.06740852      -0.35245403      -0.81410909
O       -0.83217540       3.59752873       6.80139072      -0.43066096      -0.42732913       0.15086309
O       -0.74740657      -1.42780238       7.89608363      -0.20553337      -0.20826120      -0.08092205
O        3.36922558       1.08779989       3.42645394       0.42147537       0.80269414       0.04253524
O       -0.68797871      -1.18488557      11.90548711      -0.97042418       0.75383910      -0.45674507
O        0.68710644       1.18278815       3.15940604       0.92837541      -0.32460498       0.07509364
O        0.57158911       5.68452351       6.63142175       1.92358851       0.84202538       0.25867610
O        1.00896812       1.69208184       6.64428398       0.26478742      -1.00315362      -0.28008722
O        0.57234746      -3.53880857       7.74655186       0.80952632       0.85401043       0.77709984
O        1.49096184      -4.88699334       9.84737812      -0.41212816      -0.15113620      -1.04893112
O        1.00250293      -1.69652139       9.90390729      -0.32068049      -0.66654818      -0.98366048
O        1.86386609      -1.08598974       7.64076614       0.80645409       0.92356553      -1.36573599
O       -2.10659832       0.97425410      12.33751834      -0.44505481       0.05907615      -0.24127509
O        2.03539214      -0.46708486       4.94098472      -0.41055240       0.86882331      -0.32019101
O        2.02812916      -0.95150759       2.39894148      -0.57286473       0.35481567       0.18198605
O        3.67222199       1.07473695       6.74950935       2.21322607       0.69910780      -0.50202872
O        4.59331004       3.49061961       7.06861397       0.82692071      -0.81168053      -0.67991562
Si      -4.65208799      -1.71822152       8.12572589       0.60314235       0.20498359       1.52008919
Si      -1.79779819      -0.26973425       8.23729865      -1.92988917      -0.28024464      -1.58933128
Si      -2.03010657      -0.36063906      11.37970944       1.14117173       0.61750236      -0.64946696
Si      -0.55705396       1.99439747       6.46379520       0.26699954       1.48364117       0.28699384
Si      -0.67710156       2.00762250       3.40956662      -0.31204144      -0.24716312       0.82344956
Si      -0.90292656       5.14916727       6.34480706       0.03233581      -1.30043839      -0.46468177
Si       0.81147651      -5.03481995       8.33720867       1.60920028       0.39989376       0.28038263
Si       0.73058713      -1.95275672       8.31553802      -0.35748921      -0.75269459      -0.26427038
Si       0.72825959      -1.84436534      11.46216863       0.50353912      -0.26908035       1.40521145
Si       2.00265572       0.32261335       3.39809089      -0.66955543      -1.42751492       0.26064622
Si       5.01388168       1.96649038       6.50126073      -3.05337462       0.29439123       0.63779569
37
Lattice="7.94875485 -4.997e-05 4.90143315 -3.97456407 6.88389431 4.90125479 -3.97443877 -6.88377714 4.90124571" Properties=species:S:1:pos:R:3:forces:R:3 energy=-287.73252908 stress="0.023008613383456507 3.293267378577392e-05 0.004859605638304918 3.293267378577392e-05 0.013832097299568837 -0.002067516980959307 0.004859605638304918 -0.002067516980959307 0.015030290023815084" free_energy=-287.73252908 pbc="T T T"
Al       2.07656639       0.23360928       6.78347423       0.25286895       0.83396779      -0.81579104
H        1.85385400      -1.29205395       5.05438519      -0.05792740      -1.55471139      -0.39172410
O        2.05805907      -1.25298332      12.14350167      -1.29230774      -0.20631222      -0.70877699
O       -5.17296469      -1.57059590       9.71909463       0.35482810       0.27553095       1.45729345
O       -4.38943195      -3.21885051       7.93520183       0.85258379      -2.80168398      -0.22093361
O       -3.36220699      -0.79106175       7.87054443      -0.30005953       0.25445801       0.45879274
O       -1.81447304       0.26059574       9.83986787      -0.04030165       0.38488986      -0.67880674
O       -1.60593603       1.39295352       2.31414425      -0.54958876      -0.31859503      -0.04935291
O       -1.68409301       1.18952944       7.35779953      -0.48702831      -0.12453743       0.71976001
O       -1.10941224       1.73632342       4.89417139       0.25912953       0.85650215      -0.08141158
O       -0.73949424       3.59052190       6.83893055       0.34946422      -1.22294203      -0.03757592
O       -0.83713906      -1.27490926       7.83084487       1.58990352      -0.77530853       1.04701406
O       -0.53859630      -5.78607872       8.14200671       1.01901905       0.43996458       0.03686465
O       -0.54883598      -0.99365433      11.80659518      -1.48148166       0.14415326       0.49576465
O        0.85531062       1.32536816       3.22475510      -0.09469201       0.12129125      -0.43489710
O        0.70277843       5.80763911       6.66414995       0.84610940       0.03619987       0.15153083
O        0.88557279       1.47815427       6.68958976       0.19081572       0.03139244       0.37557028
O        0.69738812      -3.46195481       7.66509615      -0.24215909      -1.72931715       0.03359867
O        1.24646117      -4.78556969       9.89547546      -0.03058867      -0.65290371      -2.13889702
O        0.80276250      -1.93700861       9.89534119       0.16696556      -0.24149894       0.55744766
O        1.84021131      -1.23786099       7.60884902       0.54655319       0.82146469      -0.33597413
O        2.01655015      -5.78092214       7.47053172       0.22756298      -0.59658441      -0.70388653
O        1.88275915      -0.35277562       4.91774024       0.37110265       0.92428731       0.66661852
O        2.01164603      -1.05639318       2.37429898       1.42901353       0.80446601       0.06531636
O        3.68113186       0.83408868       6.78632509       0.74675580       0.28158238       0.23363189
O        4.56154555       3.33901070       7.12586702      -0.46403621       2.28800971       0.33586276
Si      -4.66536041      -1.69960207       8.20138822      -0.38007773       1.66472641      -0.60763774
Si      -1.92364606      -0.13639816       8.26699552       0.32677362      -0.52367544      -1.25667452
Si      -1.91721932      -0.19966712      11.36065342       0.83890205      -0.03209623       1.47165696
Si      -0.60700371       1.99061185       6.45702287      -0.27267262      -0.02732762      -0.64805856
Si      -0.60550594       2.07840468       3.36423358       0.96367834      -0.66063134       0.89435680
Si      -0.69775807       5.10205230       6.36250812      -2.74407956       1.13645310       0.21787316
Si       0.89420098      -4.96751024       8.27269637      -1.01169320       0.45116817       2.06455759
Si       0.64830590      -2.00501660       8.33173016      -1.76649431       1.71532450      -1.89922104
Si       0.68889463      -1.95851129      11.49402505       1.62673728      -0.76832804       0.91161139
Si       2.07763710       0.28399770       3.34856156      -1.13957783      -0.72981865      -0.40083733
Si       4.91158520       1.85404420       6.57756167      -0.60562971      -0.49934900      -0.78702094
37
Lattice="7.94875485 -4.997e-05 4.90143315 -3.97456407 6.88389431 4.90125479 -3.97443877 -6.88377714 4.90124571" Properties=species:S:1:pos:R:3:forces:R:3 energy=-287.76017818 stress="0.01883198119876098 -0.0031559841495347827 0.000881678949537197 -0.0031559841495347827 0.016669049793439604 -0.0023909523458701064 0.000881678949537197 -0.0023909523458701064 0.015736538539309588" free_energy=-287.76017818 pbc="T T T"
Al       2.11782454       0.25505831       6.58648059      -0.09251310      -0.99061171       1.00357090
H        1.44172383      -1.13065230       4.85146410      -0.10187470      -0.37724511       0.04270982
O       -6.01075012      -1.45778129       7.46975882       1.13118865       0.16578269       0.40904929
O       -5.00175442      -1.35105266       9.85573493      -0.48774167       0.42873454       0.68227229
O       -4.13896680      -3.21331938       8.27764520      -0.32867176      -3.91419571      -0.16011666
O       -3.43299071      -0.78670394       7.80409597      -0.13553001       0.18807076       0.07593777
O       -2.17795990       0.34968208       9.88551577       0.37515956      -0.20393672      -0.74328142
O       -1.74061491       1.50204681       2.44712061      -1.78067863       0.52982345      -0.62875151
O       -1.69585927       1.21803533       7.36330178      -0.21701683      -0.42168964       0.40617390
O       -0.80332568       1.48847421       4.91516226      -0.07235964       0.54006496       1.40278875
O       -0.69295989       3.52655161       6.72800818      -0.14963312      -0.24400824      -0.31556574
O       -0.80568115      -1.16667744       8.12426282      -0.16892266       0.01104837       0.34622407
O       -0.64256941      -5.67322851       8.20149941      -0.44728874      -0.23725367       0.11233321
O       -0.48439981      -0.96233821      11.62562738      -0.40969031       0.53449368      -0.04196308
O        0.71464226       1.18587998       2.79844308      -0.60523881       0.70497207       0.51949605
O        0.93233011       5.51894401       6.78122899      -0.98116293       0.23303447       0.28349086
O        0.92474395       1.39168539       6.96666697       0.28420777       0.72525100       0.02514647
O        0.46209944      -3.41928178       7.70730065       0.08826255      -1.89120906      -0.03946558
O        1.36371655      -4.90876633       9.81070988      -0.70717199      -0.09836112       0.52705369
O        1.25136144      -1.92686873       9.79437739      -0.98394587      -0.02162183       1.30188643
O        1.78823876      -1.24805237       7.38563437       0.61445013       0.84978694      -1.18969591
O        1.87196117      -5.71957385       7.39896285       0.82923653      -1.57481205      -0.93619042
O        1.80446942      -0.22876621       4.83654954      -0.30673564      -0.22714241       0.47480575
O        2.21170033      -1.03051478       2.51639843       0.58855294      -1.44693450      -1.21920652
O        3.71818491       0.75559881       6.71872290       0.61830732       0.36123548      -0.03144038
O        4.33041981       3.38878726       6.95878795       0.05698447       0.01870274      -0.27657702
Si      -4.65684411      -1.73034153       8.34558334      -0.28970118       2.04379797      -1.45286507
Si      -2.04578329      -0.08915298       8.30338307       1.10152147       0.05044922      -0.45584354
Si      -1.90659393      -0.22755041      11.38671932      -0.47828827       0.97215454       0.25484314
Si      -0.47990262       1.92325289       6.49710114      -1.89495847      -0.18926289       0.26136498
Si      -0.62479871       2.03749605       3.43295611       2.75885063       0.25199577      -1.28813402
Si      -0.64181093       5.11131034       6.45169226       0.79849222      -0.00139068       0.96627234
Si       0.79514698      -4.92403214       8.27040533      -0.22135314       0.61892443       0.97296826
Si       0.65093011      -1.92968205       8.24270141      -0.09362302       1.29910931       1.29360047
Si       0.77210269      -1.96221254      11.40008128      -0.21537484      -0.53532958      -1.58527782